LAMMPS input file generated by the PHASE I/O utility
# created on : 06/06/23 13:52:28

720 atoms
3 atom types
0 27.144000000042727 xlo xhi
0 27.144000000042727 ylo yhi
0 27.144000000042727 zlo zhi
0 0 0 xy xz yz

Atoms

1 1 18.656396928029366 0.6706250928010556 17.188150824027055
2 1 11.313130608017808 4.181017464006581 0.1017104680801601
3 1 4.2905977920067535 21.025362384033095 21.49099056003383
4 1 1.5410408832024256 8.648404128013613 26.89045142476233
5 1 8.266976640013011 12.740036400020054 2.7981935280044046
6 1 19.625980608030893 0.5479885008008626 20.821049496032774
7 1 13.509894528021265 12.080545776019015 8.262742176013006
8 1 16.837966080026504 3.178942416005004 1.8039902400028387
9 1 22.85657805603598 9.267043032014588 24.68651796003886
10 1 18.097610544028488 17.314397568027253 10.542973896016596
11 1 25.345981440039896 12.555375768019763 24.74615332803895
12 1 2.6858716560042275 18.388947096028947 15.179223384023894
13 1 23.80523371203747 21.274218576033487 9.969231168015693
14 1 16.439627880025878 8.452125864013304 3.8733402240060966
15 1 21.949534152034552 17.543872944027616 10.482768504016502
16 1 9.332650080014691 18.59016556802926 23.24525299203659
17 1 16.203095064025504 9.417176496014823 13.387746528021072
18 1 3.6505965600057464 24.41271643203843 2.159324200803399
19 1 22.354441200035186 3.4252742160053917 3.956400864006228
20 1 10.789930008016984 2.0923653816032934 7.813753272012299
21 2 19.698265080031007 5.166561816008133 15.248766312024001
22 2 4.9060065600077225 11.449176336018022 17.638822656027763
23 2 14.463218952022766 0.5560719840008753 0.700858080001102
24 2 24.663364128038822 8.008918632012607 20.316252528031978
25 2 11.937931200018792 16.24457109602557 17.90388381602818
26 2 3.600597312005667 10.30578962401622 5.344137864008412
27 2 24.149256768038015 15.112313424023787 23.993260200037767
28 2 10.630323288016733 14.204645208022358 26.95051756804242
29 2 17.90790112802819 8.446697064013295 17.13323851202697
30 2 16.773119064026403 11.840077080018638 11.794420872018565
31 2 26.412577776041577 17.59018060802769 0.0901525528801419
32 2 27.002742624042504 1.6222801608025534 0.6579705600010368
33 2 15.214619160023949 26.369093088041506 8.648024112013612
34 2 16.942959072026667 23.52008599203702 23.361130728036773
35 2 16.145196912025416 7.484442264011781 1.121793660001766
36 2 21.729966336034206 14.164444944022296 5.207793552008198
37 2 26.117120764841108 21.02150793603309 6.582610008010362
38 2 16.235505000025558 24.17042908803805 16.92422971202664
39 2 25.685742888040433 3.191645808005024 21.131712576033262
40 2 13.661575200021506 25.750589904040535 24.97185568803931
41 3 4.740943896007463 3.1036449600048885 14.628878784023026
42 3 19.26271245603032 24.950086200039273 22.237097688035004
43 3 8.091626400012736 25.690115786440437 26.07284347204104
44 3 17.7248691360279 24.137747712037996 0.21198269664033367
45 3 5.187462696008166 19.72663056003105 15.198197040023924
46 3 15.524196480024436 19.52744788803074 24.736012329638935
47 3 9.431997120014847 15.509810160024413 9.505855944014963
48 3 19.604021112030857 23.095092384036356 16.49901895202597
49 3 24.5861665920387 7.080268104011145 25.887479810440748
50 3 16.747060824026363 26.07653505604105 24.845283216039107
51 3 22.19790175203494 14.621495616023017 9.596435472015106
52 3 9.354338136014725 17.399168280027386 1.5664395240024658
53 3 5.505346080008666 25.96480492324087 15.323846616024122
54 3 8.171836920012863 6.0822375120095735 14.183961480022328
55 3 6.324009120009954 17.704429704027866 20.847379176032813
56 3 26.014755312040947 6.0482260800095204 22.276212192035064
57 3 14.132225016022245 4.459976352007021 4.405471200006938
58 3 12.071343960019002 2.8116569520044257 2.9557101600046525
59 3 5.45024376000858 5.7792290400090955 15.15935397602386
60 3 17.485106184027522 13.60772150402142 22.110986664034805
61 3 15.378487488024206 1.4991631200023567 3.422315520005387
62 3 12.78164815202012 7.020524160011051 19.544114304030764
63 3 7.576107552011926 14.476003776022786 0.4991483016007857
64 3 13.380824808021062 18.899987184029747 3.084101280004856
65 3 15.066277200023716 23.369626800036784 14.175193968022311
66 3 2.4360355656038344 0.7474290408011766 13.566788352021355
67 3 16.011757008025203 0.18077904000028755 21.978225360034596
68 3 22.151024064034868 5.150248272008106 0.6296295096009911
69 3 10.040864184015804 2.0472384816032223 12.474893808019637
70 3 9.70704727201528 12.61042380001985 24.310654992038266
71 3 19.01293336802993 17.450551872027468 23.922658656037655
72 3 13.341873168021001 25.525104696040177 4.047713280006369
73 3 1.7486164800027504 24.778508976039006 16.53691197602603
74 3 2.729709216004297 15.204114432023932 22.628758464035617
75 3 13.521376440021283 7.631589888012013 5.190964272008171
76 3 1.5917241600025063 7.449942240011725 24.48820389603855
77 3 10.881052416017127 1.262293718401987 26.512033392041733
78 3 14.425760232022705 3.845599056006053 0.3077993880004845
79 3 26.64528328804194 22.98613636803618 12.840849216020212
80 3 12.86495308802025 3.0349706400047762 17.420503464027423
81 3 16.037299512025243 25.58807877604028 6.060223728009539
82 3 3.5658529920056132 26.88752475868232 19.272728592030337
83 3 22.44564504003533 4.655738880007329 20.758781160032676
84 3 14.933081592023507 20.674906200032545 21.01466764803308
85 3 24.728645448038925 10.553342904016612 14.949693720023532
86 3 4.572678240007199 13.890589128021865 26.139536280041145
87 3 13.089623976020604 13.42417377602113 17.626309272027747
88 3 4.9961246400078645 15.988196016025165 15.636681216024614
89 3 25.12589517363955 15.329465424024129 14.173103880022309
90 3 18.103772232028497 14.368974984022618 10.45774173601646
91 1 17.75670904802795 10.811183760017018 23.004648576036214
92 1 15.865152264024974 2.9586960000046574 20.598903000032422
93 1 11.622897936018296 4.069401336006406 14.74451222402321
94 1 3.6440820000057355 24.05132121603786 19.117709208030092
95 1 26.832975904842236 12.412408320019535 14.80800204002331
96 1 19.558853496030785 24.641024616038784 19.476742896030657
97 1 4.919850000007742 2.5100056800039523 17.541619992027613
98 1 7.955227800012522 1.4717476800023148 10.162496448015997
99 1 26.512893856841735 2.4595965576038714 6.410869920010093
100 1 15.098687136023765 18.908293248029764 10.617511320016712
101 1 7.342913448011559 2.181020400003431 14.21148549602237
102 1 22.303763352035105 5.003724960007875 16.95520101602669
103 1 22.0450810320347 24.028900272037824 4.654517400007326
104 1 5.665794264008919 14.085021600022168 17.22970828802712
105 1 22.490161200035402 14.876812080023418 19.514690208030718
106 1 2.9735709120046807 16.404503544025825 25.198372368039664
107 1 23.47958714403696 26.614719144041892 20.725041168032625
108 1 23.662510560037244 6.424604784010113 10.10758413601591
109 1 11.09717294401747 18.489678480029106 8.18901907201289
110 1 2.755658880004339 17.926820496028217 2.520534837603967
111 2 1.73993040000274 6.00322132800945 21.32812656003357
112 2 20.807450352032753 26.75866377604212 13.720559112021595
113 2 25.598743653640295 10.388958840016352 1.871850240002944
114 2 10.473268104016485 5.195470176008178 18.307922256028817
115 2 24.66778860003883 24.4593498240385 8.6392837440136
116 2 6.249145968009837 15.870445344024981 3.059508816004816
117 2 9.811850256015445 9.286342416014616 2.705713920004259
118 2 4.130502480006499 11.616654816018286 8.01860904001262
119 2 18.958401072029844 13.025781288020504 17.652991824027787
120 2 13.415270544021118 6.801417792010707 2.219564880003491
121 2 21.907189512034485 9.604171512015117 3.906537336006149
122 2 11.535765696018158 10.731597552016892 22.942597392036113
123 2 2.3197262400036514 20.083357008031612 8.892591552013998
124 2 6.172735608009717 8.483450040013354 13.013457912020485
125 2 24.81968642403907 25.571602368040253 12.636780624019892
126 2 1.404430560002208 20.746919232032656 14.424050160022706
127 2 9.550589256015032 12.249028584019282 12.841337808020214
128 2 23.100656904036363 2.0553436800032356 1.7266298400027162
129 2 22.467034512035365 3.851815032006063 8.634316392013591
130 2 14.335723584022567 13.276673280020898 1.5459892344024335
131 3 2.8892073600045505 21.27497860803349 11.774985768018535
132 3 18.8029202400296 1.6346116800025714 23.386130352036812
133 3 16.505940672025982 5.177365128008149 7.794019584012268
134 3 23.8892986800376 11.26986307201774 22.802805792035894
135 3 24.694851168038873 1.375861500002166 18.751618080029516
136 3 1.7241868800027145 23.509906992037006 21.038554368033115
137 3 0.9709408800015304 2.6159052816041175 10.036439712015799
138 3 18.310772376028822 16.87224895202656 15.879240000024994
139 3 22.77357170403585 24.552915192038647 14.482328328022797
140 3 23.151144744036444 1.0644031008016754 12.59161300801982
141 3 7.7716800720122325 10.102128192015902 14.785363944023272
142 3 23.146720272036436 8.668029240013643 8.05514486401268
143 3 26.73865864804209 21.78449863203429 26.849669464842265
144 3 5.606430336008825 8.578942632013502 16.80987204002646
145 3 12.84568084802022 10.879858080017124 20.115196920031664
146 3 14.98153363202358 24.653918016038805 1.7395503840027382
147 3 16.77862929602641 11.452216464018028 19.07520170403003
148 3 24.82015601523907 19.714850064031033 1.3925252016021918
149 3 8.377642728013187 19.8846629280313 26.082835178441055
150 3 0.6001538400009467 2.28145320000359 16.203149352025505
151 3 8.694494640013685 7.885657728012412 11.231454312017679
152 3 13.081345056020591 12.73734914402005 25.875452304040728
153 3 25.484632992040115 7.865191152012381 5.174460720008147
154 3 16.401246264025815 20.27037916803191 1.143305280001798
155 3 5.535258768008712 23.870487888037573 21.216944736033398
156 3 3.96440834400624 2.4505603200038553 2.1199464000033386
157 3 5.173157808008143 12.317241456019389 14.350055616022589
158 3 23.526980568037033 8.815909752013876 17.008674696026773
159 3 24.47018842323852 13.636629864021463 4.304441232006775
160 3 12.800730384020149 17.282937672027202 10.791450072016987
161 3 1.6837423200026511 19.686213144030987 6.012966024009465
162 3 4.960023120007809 18.46136728802906 24.29273995203824
163 3 13.41779493602112 14.272613784022466 13.198932864020776
164 3 7.634494296012017 3.720085200005853 23.325897816036715
165 3 20.31497676003198 10.725490152016883 23.858028792037555
166 3 6.139429920009666 23.925318768037663 17.35093339202731
167 3 12.990521232020448 20.470810464032223 9.255099672014568
168 3 6.9429737520109285 11.23216005601768 23.751081432037385
169 3 2.4666024240038826 11.319346584017818 23.660067600037245
170 3 22.116035448034815 26.113450896041105 23.89931481603762
171 3 4.348143072006844 6.351560280009998 11.938419792018792
172 3 8.364966480013168 17.96151052802827 16.97783911202672
173 3 24.158947176038026 20.756555352032674 12.944322144020376
174 3 21.044363184033127 26.575197480041833 18.211723920028668
175 3 20.52640137603231 13.105476072020629 20.548578024032345
176 3 10.718731296016873 5.638568832008875 2.6507961792041725
177 3 19.746255672031083 10.662163200016785 11.831255280018622
178 3 17.88862888802816 26.15655556804117 14.881182264023424
179 3 3.4719890400054645 24.347353680038324 11.432401344017995
180 3 22.101513408034787 18.27011066402876 14.43425630402272
181 1 20.243180880031865 25.84450814404068 10.842155064017065
182 1 12.607275096019846 16.092076104025328 2.914994160004591
183 1 17.529812352027594 22.15096977603487 14.507192232022835
184 1 9.423881064014834 26.63176557604192 13.393392480021083
185 1 13.8482987760218 6.0502890240095235 8.78529132001383
186 1 7.306621920011501 19.856134584031256 7.824610872012316
187 1 5.326874280008385 4.874709528007673 1.8770076000029559
188 1 2.6266325904041343 7.386913872011627 9.84127435201549
189 1 21.706133904034168 4.654191672007326 13.16337422402072
190 1 20.998869840033056 20.963121192032997 14.91022634402347
191 1 10.282228632016185 6.420777480010107 24.4579926240385
192 1 9.819667728015457 0.415031760000654 4.735270800007454
193 1 2.143586109603374 11.503084320018106 11.85503342401866
194 1 25.75398018964054 3.9818619360062675 15.724274904024751
195 1 20.916922104032924 22.80180146403589 8.541565344013446
196 1 16.323587280025695 18.53718048002918 14.784115320023272
197 1 0.5007226536007882 5.292808560008331 18.9316913760298
198 1 26.15004100804116 17.67286123202782 9.647140464015186
199 1 13.638774240021469 9.047963808014243 16.488649944025955
200 1 15.10213442402377 13.474715904021211 19.875461112031285
201 2 9.43283858401485 22.220268408034975 10.681896888016814
202 2 17.090350992026902 14.119711632022227 0.7004373480011026
203 2 7.151331096011257 17.62440919202774 14.160509064022289
204 2 20.650232304032507 5.061677400007968 25.00030260003935
205 2 17.33171544002728 26.254355400041327 3.183394032005011
206 2 15.804594000024876 7.606400256011972 21.532900896033894
207 2 16.35154560002574 2.3992581600037757 13.692085056021552
208 2 27.01809689908253 24.638530082438784 0.3870761544006093
209 2 3.518785296005539 18.33438765602886 21.456571968033774
210 2 3.6271984320057093 22.343475024035172 15.680681640024682
211 2 13.192771176020766 0.8228622168012952 22.562744256035515
212 2 26.342350819241464 10.055739096015827 21.747854232034232
213 2 14.848582320023374 15.130825632023818 4.113998928006476
214 2 15.579678816024524 24.048986832037855 20.9019386160329
215 2 22.304306232035106 15.153002280023852 15.482747592024372
216 2 23.64481267203722 27.001103669322504 16.336453536025715
217 2 13.537418544021309 20.883969288032873 16.057141776025276
218 2 9.057219912014256 24.920309232039227 16.659602856026222
219 2 19.418111856030563 19.507659912030707 16.775996328026405
220 2 22.542060528035485 11.402380080017947 10.688357160016825
221 3 0.3168220536004987 12.899615976020305 22.149313992034863
222 3 16.645487976026203 15.06367137602371 18.198531936028647
223 3 0.36345816000057246 23.469435288036944 6.6703122720105
224 3 10.942669296017224 21.56924671203395 0.4690401768007383
225 3 1.5675524280024675 10.397264904016367 9.276054840014602
226 3 11.955710520018819 19.418681880030565 18.48031380002909
227 3 26.634602124041926 11.351702232017868 18.57548066402924
228 3 4.946369688007786 18.509032152029135 8.623268784013574
229 3 25.052207356839435 18.743882040029504 15.670638360024668
230 3 13.027518504020506 26.439127322441617 19.497806640030692
231 3 24.93111254403924 23.699969280037305 21.971303640034584
232 3 16.714976616026313 4.89894912000771 23.000604120036204
233 3 23.358199176036766 22.008518064034643 7.196797296011328
234 3 0.6084653328009578 20.0741009040316 20.930575536032944
235 3 0.797982026401256 24.97771879203932 24.594507943238714
236 3 14.548858272022901 20.231508960031846 13.193531208020769
237 3 1.2156196104019135 2.603915776804099 19.96883647203143
238 3 23.087980656036343 12.994891416020456 13.121111016020654
239 3 13.561630992021348 16.11522993602537 0.16722984096026322
240 3 9.386693784014774 16.153720128025427 12.525734520019716
241 3 12.570033528019787 9.700369848015269 2.005624015203157
242 3 15.85795910402496 16.5816995760261 22.142745144034855
243 3 1.890490024802976 7.993500840012582 6.963820344010961
244 3 9.9736556400157 6.101998344009605 21.532059432033893
245 3 0.35148765600055326 16.88044644002657 16.12245024002538
246 3 0.44592163200070195 15.197979888023923 25.27138972803978
247 3 8.921988504014044 23.801352120037464 13.775851440021682
248 3 2.0365003152032055 9.07187767201428 21.10470429603322
249 3 1.5968570904025137 4.818412872007585 13.413451896021114
250 3 8.37321825601318 2.1264609600033495 1.4904770400023466
251 3 0.2793117600004372 5.00725368000788 25.26712812003977
252 3 7.737777216012179 21.852521496034395 5.169547656008137
253 3 23.078995992036326 23.56335352803709 1.7763033600027944
254 3 12.224544696019242 9.926289360015627 26.062292599241022
255 3 4.090030776006438 5.320414008008375 8.579105496013504
256 3 4.857907392007647 2.8434425760044757 20.50797060003228
257 3 15.871802544024986 7.386778152011628 15.45164056802432
258 3 20.281698216031923 3.080626848004849 11.42898120001799
259 3 7.036050528011075 3.7375930800058836 11.859403608018667
260 3 1.7757604800027962 3.773558880005938 7.052608368011101
261 3 20.80508882403275 16.49367158402596 21.75130152003424
262 3 24.91599605043922 24.81480050403906 18.199101960028646
263 3 13.461741072021189 17.036714448026817 23.979308184037745
264 3 26.23008866404129 26.742803536842096 15.038997480023673
265 3 19.125798120030108 20.469969000032222 25.47040953604009
266 3 24.17830084803806 16.556591376026063 17.842049784028085
267 3 18.666304488029382 19.847529936031243 13.392171000021081
268 3 15.401342736024242 11.183056560017604 4.070487096006407
269 3 5.8910351760092725 11.133193032017525 2.404958400003786
270 3 25.50158984884014 18.803653128029598 24.684346440038855
271 1 4.730656320007446 13.294344024020926 23.43121653603688
272 1 8.464286376013325 25.541825400040207 1.7542922904027614
273 1 9.493614000014944 7.419975264011679 0.39874536000063016
274 1 22.080313944034756 19.78287292803114 6.2126372880097795
275 1 17.69959807202786 18.142398144028558 26.64394780324194
276 1 2.7538130880043346 15.245183304023996 19.644357096030923
277 1 9.107680608014336 15.334405632024136 18.492094296029105
278 1 5.732432784009023 20.530201536032315 12.428939016019564
279 1 1.0480298400016506 6.027080904009487 5.011189560007888
280 1 20.497357296032263 14.21197408802237 11.863583784018674
281 1 8.104112640012756 1.3341276000021007 24.90926162403921
282 1 14.754745512023224 1.82962503360288 7.675617456012083
283 1 22.21625109603497 24.98092178403932 26.617894992041897
284 1 2.202735600003469 0.25523693208040177 9.09104133601431
285 1 8.48768450401336 22.6798434720357 26.08602731284106
286 1 18.426188664029002 16.00274520002519 20.198800440031793
287 1 18.931799952029802 4.462175016007024 6.018096240009475
288 1 3.4293458160053985 27.1286093520427 16.166423520025447
289 1 4.862250432007654 19.097324064030058 5.447285064008574
290 1 15.053030928023695 14.953385304023538 10.060842168015837
291 2 5.966658360009392 17.714201544027883 11.372168808017902
292 2 4.155393528006541 2.984401368004698 23.588706024037133
293 2 19.61045424003087 5.064690384007973 21.960690336034567
294 2 7.033390416011072 5.63998032000888 20.954625120032986
295 2 2.233142308803515 13.614887520021432 13.958394840021972
296 2 13.60945872002142 4.945012488007784 23.210101512036534
297 2 13.649143248021485 19.06065252003 0.10531872000016865
298 2 3.6030402720056713 9.553412232015038 14.506757928022836
299 2 4.102082712006458 3.1802996160050063 11.531666952018153
300 2 5.178450888008151 24.838483644039098 26.07015621604104
301 2 0.7188084072011315 26.536571568041772 4.3197775920068
302 2 19.45323619203062 0.630264679200992 4.583481552007215
303 2 24.935775883239252 20.42477424003215 22.027274568034674
304 2 3.6220953600057015 1.3656146400021516 6.954292800010946
305 2 2.388077546403759 3.5347731120055643 27.023534928042537
306 2 5.687780904008953 17.942971176028244 17.848998648028097
307 2 18.863967096029693 14.56158880802292 24.476124816038528
308 2 21.0919194720332 19.303591320030385 20.364976008032055
309 2 2.9674092240046708 21.42988941603373 18.324018648028844
310 2 11.369725848017897 13.667574024021514 11.115196560017496
311 3 3.9160648800061613 6.078491640009568 4.3004239200067715
312 3 12.87741218402027 3.1607830800049754 20.855060928032827
313 3 17.843841288028088 0.1636783200002571 10.718106984016872
314 3 1.785942194402811 10.82521720801704 16.18661865602548
315 3 24.911568864039214 4.2958365840067625 11.628923904018306
316 3 21.52277618403388 6.0460817040095165 4.568145192007191
317 3 3.7987756560059793 14.098729320022192 10.414854216016394
318 3 18.581750928029248 24.31936821603828 9.053392608014251
319 3 6.548218560010305 21.928714704034515 10.043415720015808
320 3 6.350963112009997 25.303256784039828 5.200220376008185
321 3 22.873705920036006 12.004624008018897 26.374521888041514
322 3 18.223124400028684 18.579389400029243 19.705295376031017
323 3 12.934821744020361 24.43437734403846 22.536794592035474
324 3 1.3419993600021105 3.391642800005336 22.904025768036053
325 3 8.22110328001294 0.5624236800008873 7.016914008011045
326 3 10.286870256016192 20.47564209603223 6.473002536010188
327 3 11.636904240018318 20.230938936031844 23.788485864037444
328 3 6.053872032009529 0.160727224320253 23.369111064036783
329 3 20.283978312031927 26.601744312041873 1.0212414264016074
330 3 7.535445840011859 6.346077192009989 6.966969048010966
331 3 23.101498368036363 13.052599560020546 17.19067521602706
332 3 26.22441556804128 13.806117000021732 0.7155212688011263
333 3 3.18282400800501 23.071639968036315 26.99402831428249
334 3 16.031354976025234 16.90970767202662 12.541016592019743
335 3 0.21552336000034084 27.01349164804252 7.244027856011403
336 3 10.923939936017195 9.28864965601462 12.83919343202021
337 3 10.708633728016856 5.43143296800855 12.249137160019282
338 3 19.585183176030828 11.303603064017793 8.757387288013785
339 3 1.5077379096023733 2.4125180040037977 4.262693760006711
340 3 16.138085184025403 16.987773816026742 8.45538314401331
341 3 20.925092448032938 20.404307664032117 10.471693752016483
342 3 25.268919624039775 11.53731290401816 9.043376472014234
343 3 17.846609976028095 22.16456892003489 19.56102501603079
344 3 9.856284984015515 3.4472880000054262 5.270957640008297
345 3 5.575920480008775 26.373327552041516 1.8110476800028477
346 3 11.507644512018114 0.012964490136020407 2.277129160803584
347 3 24.26231152803819 22.90785307203606 25.54472980804021
348 3 23.228830872036564 6.625198944010428 14.785146792023273
349 3 19.123979472030104 24.169479048038045 4.298279544006766
350 3 16.501814784025974 16.5809124000261 2.2316032440035127
351 3 21.419384688033716 2.1327040800033576 25.134551395239562
352 3 17.105823072026926 2.1119307768033244 6.33424240800997
353 3 9.245192112014553 21.369711168033636 21.42066045603372
354 3 8.555245920013467 5.030814672007919 26.542190376041777
355 3 18.166882032028596 12.576303792019797 2.8753639200045282
356 3 6.703427952010552 7.574098896011923 1.2353315832019445
357 3 25.084258992039484 4.915886976007737 18.19424318402864
358 3 21.756866040034247 17.522429184027583 25.782239808040583
359 3 24.397597224038403 17.798972256028016 20.86901294403285
360 3 22.039869384034695 21.00367432803306 3.8102847120059975
361 1 13.066850160020568 17.004793104026767 13.638584232021469
362 1 18.104450832028498 4.940886600007778 10.18315303201603
363 1 9.692688096015257 8.072327016012707 15.382423368024213
364 1 24.911568864039214 25.44277151524005 24.235438968038146
365 1 12.845083680020219 10.581029784016655 4.902450696007716
366 1 21.818211480034346 22.225290048034985 12.577742424019798
367 1 3.9271939200061796 0.31378464000049433 11.289352464017771
368 1 7.94811607201251 23.058013680036293 19.704155328031018
369 1 0.0949725129601495 12.486565728019654 3.180842496005007
370 1 15.195238344023918 11.618989200018289 16.633436040026183
371 1 1.604753280002526 20.974358808033017 1.600402096802519
372 1 19.695550680031 7.653196512012046 23.174054280036476
373 1 10.714361112016865 9.520323696014986 7.018054056011046
374 1 23.965926192037724 16.79670720002644 12.275819712019322
375 1 9.056134152014256 21.65556463203409 2.5992850104040914
376 1 16.552546920026057 25.580532744040266 12.453151464019601
377 1 2.926774656004607 8.473596768013339 18.058957488028426
378 1 19.45304618403062 26.21757528004127 24.74561044803895
379 1 1.279296720002011 25.2208476000397 13.476643128021214
380 1 12.543432408019743 9.505665936014962 10.46816503201648
381 2 12.45936744001961 13.306233096020945 5.6434818960088835
382 2 9.280805040014608 9.246739320014555 21.559284864033934
383 2 16.852759560026527 7.785442080012257 6.610921200010406
384 2 19.67462265603097 14.627657304023025 7.818042024012307
385 2 19.96066612803142 11.583702000018235 26.734106599242082
386 2 4.982009760007843 9.082572408014297 22.962195360036144
387 2 24.54849072003864 10.635534936016741 4.852288584007638
388 2 2.794203360004399 0.24755328000039012 22.010825304034647
389 2 6.047601768009519 1.4914976544023477 27.01895736388253
390 2 9.634844232015167 25.05711499203944 7.651079280012045
391 2 18.419782680028995 22.07569946403475 2.2910458896036063
392 2 6.6173814720104165 4.875062400007673 17.64273139202777
393 2 4.919714280007744 20.418938280032144 26.457256800041645
394 2 26.95602155692243 8.54547408001345 15.274851696024042
395 2 23.324893488036714 5.621033808008848 23.789870208037446
396 2 25.6649940144404 23.581920024037117 15.620286240024587
397 2 3.909767472006154 8.556060240013467 2.8037851920044132
398 2 8.083510344012725 10.994432904017305 10.440695304016435
399 2 25.097119819239502 21.869215056034424 3.732870024005876
400 2 26.75109602884211 7.147829520011253 1.1720779200018447
401 3 26.220751128041275 5.802165720009133 8.07436281601271
402 3 27.0647666640426 17.154573696027004 6.846069672010777
403 3 21.629397816034047 2.379025022403745 6.2844060240098925
404 3 9.225431280014519 25.470056664040094 10.725625872016883
405 3 4.232645352006662 20.48085374403224 3.0217243680047567
406 3 4.354793352006855 5.867202744009235 22.93963869603611
407 3 19.352830536030464 11.18742674401761 5.8556665440092175
408 3 0.4858776000007655 11.204934624017637 5.868532800009236
409 3 14.986989576023591 10.791694368016987 22.83070982403594
410 3 24.399660168038405 2.9118454560045834 24.6485217888388
411 3 0.9805498560015435 15.152540832023849 4.134682656006508
412 3 3.5474493600055834 0.6109110072009616 25.710715368040468
413 3 9.403034472014802 11.432401344017995 0.4857310224007646
414 3 18.16164324002859 4.951065600007791 26.800365103242186
415 3 12.987263952020443 4.008625920006311 10.420038720016402
416 3 6.963576048010961 7.177470768011298 24.030121752037825
417 3 4.035715632006353 6.049040400009521 19.3131460080304
418 3 11.348879256017865 16.924989744026643 5.486725296008637
419 3 18.90699033602976 5.740141680009037 18.20624083202866
420 3 7.990867872012577 11.897758080018729 20.708673336032597
421 3 0.5916469104009313 0.794830608001251 24.857226576039125
422 3 19.52842507203074 3.142868040004947 3.14951832000496
423 3 6.290079120009901 27.142914240042725 12.476359584019638
424 3 20.0760552720316 16.98106924802673 12.569707800019787
425 3 15.72180480002475 10.152887472015982 0.5719240800009002
426 3 12.223811808019242 6.762900456010645 26.595712915241865
427 3 4.555360368007171 22.098446136034784 7.39918296001165
428 3 20.573496216032385 17.618600376027732 4.966890552007818
429 3 8.433315072013276 7.327875672011535 17.950164336028255
430 3 8.969599080014119 8.835887736013909 25.32943717203987
431 3 19.583364528030828 21.051854928033137 6.5077197120102435
432 3 6.451748784010156 8.496587736013375 20.529197208032315
433 3 21.883465656034446 23.1880334400365 20.115251208031662
434 3 3.03768504000478 6.475336920010192 0.8281634400013046
435 3 22.28126097603507 8.001264024012595 22.22873733603499
436 3 12.903959016020313 24.2043319440381 10.855754208017087
437 3 22.14488952003486 26.767110988842134 3.435643224005408
438 3 13.13207719202067 23.43553243203689 6.856302960010795
439 3 12.099492288019045 6.678862632010513 15.951904488025109
440 3 17.647671600027778 15.266165616024029 5.852979288009213
441 3 10.394550504016362 23.42812212003688 23.926485960037663
442 3 8.221374720012943 13.794635088021716 16.29619898402565
443 3 25.394210899239972 0.42643224000066826 22.542793416035487
444 3 23.406895512036844 2.779002720004372 15.097872816023765
445 3 12.173459688019163 25.78620826084059 13.416682032021118
446 3 5.568808752008766 2.50104816000394 8.91981698401404
447 3 3.067000560004826 21.48412312803382 24.060767328037873
448 3 20.509707816032282 15.813388656024893 17.801958096028024
449 3 10.468137888016477 13.180149216020746 19.786510224031144
450 3 2.8577203200044994 14.273970984022469 7.255754064011421
451 1 17.030851344026807 19.018335024029938 22.24149501603501
452 1 7.603495848011969 3.3392820240052563 6.91162243201088
453 1 20.329905960032 2.127666153603349 0.5551328016008739
454 1 6.334052400009969 24.686463672038858 11.184848064017606
455 1 25.35629616003991 3.0191728320047524 8.733093408013747
456 1 15.114050640023791 13.375586016021053 23.866660584037568
457 1 24.03411192003783 15.983038656025158 26.614711000841893
458 1 18.725831280029475 8.143688592012818 12.804829128020156
459 1 0.30509856000047797 12.953116800020391 8.152347528012832
460 1 18.762095664029534 1.5487850664024378 13.021763976020498
461 1 25.835740632040665 8.839063584013912 8.431496424013272
462 1 4.681688544007369 7.382625120011621 6.704079408010553
463 1 10.873804968017115 22.447599408035334 8.209567080012922
464 1 10.8637345440171 18.742850568029503 12.3260632560194
465 1 14.684985432023115 22.891322376036033 8.95019112001409
466 1 10.11418012801592 3.2607815760051326 21.830616288034363
467 1 20.35664280003204 21.514741560033865 18.666548784029384
468 1 17.116110648026943 2.965753440004666 25.08888432963949
469 1 12.774862152020109 7.039253520011082 13.216630752020805
470 1 16.927296984026647 10.425956112016411 9.322606800014675
471 2 6.716185632010572 6.161715144009699 9.737557128015327
472 2 0.5643237600008907 5.633465760008869 10.620144288016716
473 2 26.50493523604172 18.666820224029383 18.660821400029374
474 2 7.3755133920116105 16.89209121602659 25.744591080040525
475 2 23.546388528037063 0.19299384000030242 5.803387200009134
476 2 5.642830440008882 15.846205752024945 7.43922036001171
477 2 12.863948760020248 1.5995959200025158 14.325897456022549
478 2 21.915685584034495 18.320598504028837 17.63646112802776
479 2 7.657132392012053 21.304456992033536 16.0066539360252
480 2 23.872415112037576 10.864440288017102 19.212631776030243
481 2 13.730873832021613 21.7901988720343 2.0252056968031877
482 2 6.680952720010516 10.337249520016272 5.211648000008202
483 2 9.515980656014978 14.712835176023159 22.398767352035257
484 2 0.6965150400010968 14.49139442402281 10.7372977920169
485 2 0.19120396464030098 22.310712216035117 23.655100248037236