LAMMPS input file generated by the PHASE I/O utility
# created on : 06/19/23 17:05:09

672 atoms
3 atom types
0 27.144 xlo xhi
0 27.144 ylo yhi
0 27.144 zlo zhi
0 0 0 xy xz yz

Atoms

1 1 8.0977338 20.035664999999998 25.019968428
2 1 10.783768320000002 9.567961416 9.53215848
3 1 15.073198920000001 15.291192383999997 0.30924073439999994
4 1 23.703688007999997 24.562089864 26.477492652
5 1 8.515154232 18.23479632 15.843355632
6 1 23.648151384 13.712198759999998 8.92372572
7 1 21.076827408 16.574777855999997 13.981765823999998
8 1 7.762261103999999 18.406807848 8.525550383999999
9 1 16.87922496 22.720695191999997 3.2776379999999974
10 1 20.090903039999997 6.7583945519999995 17.02363104
11 1 5.296337279999999 16.153285823999997 14.972386104
12 1 20.897948448 8.184621744 25.271259436799998
13 2 3.7108562400000027 22.991592311999998 15.371918640000002
14 2 11.016582408 11.772678527999998 3.2347504799999998
15 2 20.691518328 26.98191530424 15.13060848
16 2 24.593096455199998 5.63821596 25.8803355096
17 2 0.07464600000000081 22.363181568 2.713857119999999
18 2 14.457192983999997 5.944481712 4.23120672
19 2 10.314177119999998 5.375923488 8.706736584
20 2 5.78791512 26.4429301968 1.1258815463999998
21 2 22.400613143999998 17.154030816 10.218195935999999
22 2 21.961966104 22.242879359999996 7.219679688
23 2 13.148092152 26.70046704 2.345784479999998
24 2 14.952055248 14.770461887999998 9.06324588
25 2 19.82217744 23.760826127999998 9.971592695999998
26 2 13.438478664 17.881218576 19.33969284
27 2 2.976285312 8.848075391999998 6.112828800000002
28 2 1.904151599999998 17.228025359999997 16.488867096
29 2 13.995989279999998 1.632711599999998 25.165256688
30 2 23.93340768 9.401595839999999 8.928475919999999
31 2 18.025353216 22.681363535999996 21.700026503999997
32 2 23.668102224 26.275907735999997 23.082741864
33 2 2.997620496 4.43288664 5.719756535999999
34 2 15.872263991999999 25.872520751999996 23.02774812
35 2 0.6692000328 11.552323536 25.007156459999997
36 2 22.637743128 24.945422860799997 16.346985408
37 3 3.731539968 21.624647616 12.739846391999999
38 3 15.651583272 8.432283600000002 5.844917519999999
39 3 24.898729751999998 4.085416296 12.495767544
40 3 25.395226084799997 26.0998626096 15.315269111999998
41 3 8.801333424 4.651151544 11.360198303999999
42 3 4.631580720000001 7.571004480000001 2.530757268
43 3 21.018386376 25.292914919999998 26.296960622399997
44 3 11.930602319999998 7.131515975999999 10.498593456
45 3 6.752830031999999 20.107949471999998 16.884952344
46 3 22.532044392 1.2966688800000024 8.670417912
47 3 18.437426279999997 0.17513281656 25.930717488
48 3 24.851743488 6.483018671999999 20.726262648
49 3 23.464115063999998 2.3883951312000002 16.431321815999997
50 3 9.548092008 5.392589904 24.198224544
51 3 25.165693706399995 26.74484748 25.5845772
52 3 17.872532495999998 9.976478616 22.927641048
53 3 2.6628046847999998 24.9075542664 21.887971559999997
54 3 8.477532648 11.087455391999999 26.916424704
55 3 9.89344512 12.461077512 17.120562263999997
56 3 14.672879207999998 23.641555391999997 21.552064559999998
57 3 8.683365600000002 15.237827279999998 7.7796061199999995
58 3 4.556174688 18.669317471999996 14.223646008
59 3 12.73284324 11.494778256 10.395310536
60 3 19.453670495999997 6.481878624 27.140689789199996
61 3 0.11590487999999989 5.367128832 14.734360367999999
62 3 15.221595168 3.8526293519999997 0.44109000000000265
63 3 8.047381679999999 9.294784199999999 24.514669295999997
64 3 11.712690288 1.588426164 5.750374968
65 3 11.12659704 7.822629359999998 14.749045272
66 3 18.796867128 18.590355576 5.659795439999999
67 3 22.232510352 24.737996556 8.545745519999999
68 3 8.608719599999999 7.821815040000001 8.594604719999998
69 3 15.821911872000001 25.114497408 13.315543488
70 3 22.949383391999998 21.821495904 0.7703467200000019
71 3 22.524769799999998 18.785575224 25.422907536
72 3 11.88934344 24.637441608 0.386367696
73 3 5.203233359999998 14.008964111999997 5.495302799999999
74 3 13.097197152 21.984088464 18.932777136000002
75 3 13.535844191999999 25.970782032 6.5645321039999995
76 3 8.082370295999999 15.638771303999999 15.116249304
77 3 1.6856966879999997 26.6335109352 25.085751912
78 3 21.857651712 5.516583696 18.939481704
79 3 11.456233776 1.8687666816 12.964653
80 3 3.9470090400000006 23.097318192 8.67237228
81 3 12.615309719999999 26.792892359999996 10.4735124
82 3 17.051779368 14.367617783999998 5.383578096
83 3 6.67891692 26.305603272 9.752730624
84 3 25.1260933248 7.800724152 2.4893816688
85 1 12.109128407999998 9.62566956 12.832923168
86 1 18.422822807999996 2.8159185599999983 21.963920471999998
87 1 12.036681071999999 4.453461792 17.388989279999997
88 1 22.310440776 23.516204399999996 13.467522744
89 1 3.104459280000002 12.403315079999999 11.294536968
90 1 21.097836863999998 24.903526096799997 23.669377991999998
91 1 9.892793664 7.603305840000002 26.072164872
92 1 13.737578399999999 21.99193308 5.578173432
93 1 0.5693128272 4.713827039999997 7.043596559999999
94 1 13.27423032 3.7447590959999997 2.621296080000001
95 1 25.054609600799996 5.0058964800000005 1.9766260800000028
96 1 18.950095007999998 16.184637144 11.337533064
97 2 15.514071767999999 26.838825436799997 0.4237178399999973
98 2 23.923934424 16.322257223999998 25.525050408
99 2 3.5842023359999997 18.015282791999997 3.8142748799999993
100 2 8.460703367999999 10.090347696 11.392635384
101 2 26.448027839999998 7.558328232 5.0143111199999995
102 2 2.0773303199999997 0.1821362399999998 20.638207511999997
103 2 19.812704183999998 1.0673020800000006 10.241132616
104 2 5.100493319999999 18.931284215999998 22.750852176
105 2 9.13110588 12.210131232 8.928964512
106 2 7.39117548 6.897073247999999 6.1370141039999995
107 2 15.051402288 0.5417942399999993 8.561190455999999
108 2 21.176717328 0.9584546399999987 24.372543311999998
109 2 19.626170616 13.04866368 14.042134079999999
110 2 1.6147965600000012 26.172879969599997 14.453637119999998
111 2 3.2217213599999988 9.231864408 18.193890312
112 2 12.763624536 22.089760056 1.7274441599999977
113 2 2.9951503919999998 18.06731784 7.843611672000001
114 2 13.905491183999999 24.123062808 11.219728104
115 2 5.693589719999999 24.774073646399998 25.5590536968
116 2 8.714092608 16.9487136 22.930871184
117 2 20.783726496 12.557493 18.775504799999997
118 2 7.624695311999999 14.802627527999999 1.1266524359999999
119 2 24.5675240928 24.326507088 20.307295008
120 2 20.987849376 9.301950216 5.928738192
121 3 1.6460121600000006 24.224038487999998 11.742792984
122 3 9.875502936 25.347420072 15.663716639999997
123 3 23.3105886 11.731582512 24.796966895999997
124 3 19.173191543999998 15.450310511999998 8.61876288
125 3 13.199964335999999 17.393603759999998 0.8287063199999984
126 3 10.26056772 21.048760512 7.373504735999999
127 3 14.196556295999997 17.638469783999998 14.717449656
128 3 25.557948936 11.069648928 1.6164632015999998
129 3 10.546964063999999 26.076073607999998 4.150046159999999
130 3 11.152329552 11.023585559999999 23.830640495999997
131 3 13.060417031999998 4.577292720000001 24.894386712
132 3 0.6328650744 17.217357768 9.759896640000003
133 3 22.6869552 15.891590519999998 7.266448800000001
134 3 22.90722876 0.878922720000002 12.899887416
135 3 19.492839288 19.771825319999998 19.200145535999997
136 3 5.9022999359999995 3.0971304000000024 9.64507752
137 3 18.961631208 8.964278856 8.466213600000001
138 3 8.443331207999998 22.193395847999998 23.188929191999996
139 3 15.844658543999998 5.807730239999998 8.911212335999998
140 3 25.83240192 9.702459935999999 25.633924991999997
141 3 26.745577653599998 23.978548152 26.8956324
142 3 1.4405320799999985 11.129067143999999 4.50617544
143 3 18.485118288 1.508663519999999 14.014582919999999
144 3 2.6276722055999997 3.6321386399999995 9.516822119999999
145 3 6.762194712 20.877671879999998 9.063734472
146 3 23.897469023999996 25.354784239199997 1.9695686399999988
147 3 22.413126528 22.29010992 20.862851256
148 3 15.050506535999999 3.6332244000000005 14.079891384
149 3 7.054562736 6.738823728 26.653155048
150 3 24.881764752 15.766483823999998 10.723400064
151 3 2.035162116 9.641548799999999 1.9446097319999998
152 3 13.278736224 5.8223879999999975 15.305877287999998
153 3 7.493318352 15.374388744 20.709080496
154 3 21.195880992 14.604937776 25.620279703199998
155 3 3.6285284879999997 0.42931493279999994 7.37393904
156 3 8.779373927999998 15.304682952 11.486987928
157 3 0.8173058400000022 7.320573935999999 7.920619200000001
158 3 20.371490568 13.675690079999997 6.183891792
159 3 0.19562219352 2.174044392 16.920755279999998
160 3 7.660281095999999 4.122793583999999 18.159091703999998
161 3 16.544729448 20.762119872 19.519304688
162 3 7.010236584 3.950510616 13.820286167999999
163 3 14.762210111999998 14.327498952 16.952160888
164 3 5.07606372 0.18919367999999784 19.774023984
165 3 9.258085512 17.525279303999998 18.377003736
166 3 11.014302312 19.081743407999998 15.403107096000001
167 3 1.9940389559999998 11.769285528 14.149190015999999
168 3 0.8548758503999999 1.7839036799999999 12.950049528
169 1 23.991007248 2.930737679999997 6.911350992
170 1 17.014374936 22.857799535999998 26.253022629599997
171 1 17.603318304 8.38776744 3.7716587999999973
172 1 9.00529344 9.147093695999999 18.673931951999997
173 1 10.187957519999998 23.285643263999997 25.088547744
174 1 24.56301276 20.201460551999997 21.711969864
175 1 8.864090352 25.684087103999996 19.079979048
176 1 21.263116679999996 7.5175307999999985 2.05805808
177 1 5.7633498 25.022614968 21.141837288
178 1 15.433264079999999 15.934803767999998 19.513034424
179 1 26.878450248 20.853948024 18.402600527999997
180 1 11.80044684 14.016835871999998 22.991972328
181 2 7.441256160000001 14.36446908 17.744684256
182 2 17.519660495999997 18.252928512 8.465887872
183 2 1.99759482 23.005870056 19.288146384
184 2 9.847951776 1.4112002735999998 15.506661455999998
185 2 26.589135923999997 22.646347775999995 13.1960556
186 2 22.259572919999997 9.704251439999998 12.614033952
187 2 25.998034607999998 20.884132152 0.339028559999997
188 2 4.0211935919999995 4.643334071999999 12.707735039999998
189 2 14.879065032 18.69909444 3.2298645599999998
190 2 19.299791159999998 15.862193567999999 4.0493419200000025
191 2 16.967252952 2.0178849600000017 1.9574244144
192 2 26.592271056 17.909638343999998 25.444297008
193 2 16.785388152 6.30853704 24.344204976
194 2 22.71830652 14.036922432 16.85750976
195 2 2.2319941176 2.6915990399999976 3.3801065999999995
196 2 6.388068960000003 17.094124007999998 10.666234799999996
197 2 9.077686488 1.7166354192 2.891731752
198 2 8.524518912 5.8547436479999995 2.2049071199999974
199 2 4.740943896 24.082916832 11.224125432
200 2 16.239169439999998 23.127502319999998 17.656846272
201 2 22.264160255999997 20.878594775999996 18.009718272
202 2 10.844380872 23.660013311999997 5.798501279999997
203 2 24.047059607999998 15.941264039999998 22.568118767999998
204 2 8.789390064 18.92384676 5.894509607999999
205 3 0.8184621744 14.728931568 20.107678032
206 3 5.963753951999999 16.352387064000002 24.300068832
207 3 11.857286376 9.68335056 7.035046199999999
208 3 24.077080872 20.09090304 4.902287832
209 3 16.96174272 12.054731832 15.952963104
210 3 24.639504552 7.75856952 13.037697504
211 3 1.673414028 18.490737095999997 19.288499255999998
212 3 19.994433263999998 3.8199751199999996 23.947929719999998
213 3 10.292679072 18.730337184 9.659463839999999
214 3 1.5857524799999976 18.316744056 1.70857908
215 3 8.413228512 4.142228687999999 6.558533279999998
216 3 20.245108104 4.720993055999999 8.09379792
217 3 5.2386019919999995 22.954215024 23.218869024
218 3 25.282600199999997 23.361565031999998 9.563862671999999
219 3 21.982541256 22.035580632 11.045165039999999
220 3 4.661059104 27.032112431999998 23.845406832
221 3 25.209571982399996 2.3495982119999996 20.304770616
222 3 24.427835639999998 21.517455959999996 14.789869847999999
223 3 8.325987696 8.690748768 2.9698521839999996
224 3 25.170837494399997 2.0692984104 1.750136544
225 3 15.939743975999999 21.082744799999997 8.750709864
226 3 25.294109256 20.417743943999998 24.649222104
227 3 0.7928762399999988 20.097037584 15.834615263999998
228 3 0.6607012463999999 23.442372719999998 15.748487352
229 3 5.7277368719999995 9.436367304 9.646950456
230 3 5.837588640000001 10.798317504 12.987535392
231 3 11.187888191999999 13.942379879999999 5.178043728
232 3 13.972862591999998 0.6210547200000003 14.137138079999998
233 3 16.615303848 16.82968716 25.731860544
234 3 8.631791999999999 27.04355688528 0.45534874319999996
235 3 15.461168112000001 21.054677904 1.0625328792
236 3 5.947874712 5.28113664 3.9546365039999993
237 3 16.453769903999998 8.950109688 25.927351631999997
238 3 7.745703264000001 26.914741776 5.580697824
239 3 0.5745271896 1.3781008799999994 6.918707015999999
240 3 11.193425568 2.1154106375999997 19.611838584
241 3 20.713884984 21.757083192 14.65531704
242 3 25.658148297599997 10.600736328 5.154347016
243 3 6.14730168 13.156018199999998 10.06608096
244 3 14.044957056 5.066644751999999 19.166134104
245 3 18.265686192 24.4305120384 24.050669759999998
246 3 7.765681248 17.4746286 26.786106359999998
247 3 10.517512823999999 4.176375840000003 4.303355472
248 3 13.182782183999999 11.03457888 0.3653582400000007
249 3 6.715262736 22.413805128 14.660257247999999
250 3 15.714394487999998 8.856897192 20.931444143999997
251 3 4.226972256 5.983731936 15.438231431999998
252 3 2.782558584 13.749548904 24.085251216
253 1 24.270889032 5.53574736 8.836837776
254 1 17.7196032 4.124910815999999 25.788265775999996
255 1 26.4055854816 26.4778373808 1.3007404799999989
256 1 26.778940344 13.233948624 13.835785392
257 1 18.617390999999998 0.0010857600000010858 19.043307503999998
258 1 10.895357304 13.494666744 11.197280015999999
259 1 2.872106639999999 27.118728935999997 4.503651048
260 1 5.743833263999999 3.153399912 16.202986487999997
261 1 1.7263584000000027 4.056670800000002 20.136206375999997
262 1 1.9396315223999998 12.252964463999998 21.432060936
263 1 25.2866718 13.538531447999999 25.476978384
264 1 16.834980239999997 6.101428319999999 14.239416672
265 2 7.599342815999999 22.322031264 11.296952784
266 2 16.79955732 12.905696232 2.833019280000002
267 2 12.38268564 5.749804943999999 6.571752407999999
268 2 21.891581711999997 11.233652976 0.4771616616
269 2 19.903419432 20.493095688 22.008056615999998
270 2 24.667815744 4.663230624 18.170410752
271 2 14.65450272 19.118252088 25.829090351999998
272 2 26.05647564 3.410372159999999 8.828884584
273 2 13.816784591999998 3.046371120000001 7.2551026080000005
274 2 8.520148728 25.650292823999997 25.0325143848
275 2 11.346029135999999 0.08251775999999814 22.317606791999996
276 2 3.792396816 5.9391072 0.15336359999999816
277 2 16.24663404 19.75567464 12.922525511999998
278 2 26.936456976 10.403969472 11.040876288
279 2 2.7632591999999967 9.610116048 10.540123776
280 2 26.6618194128 4.603622399999999 22.080938256
281 2 15.155038079999997 11.60786016 25.351111656
282 2 18.388539936 19.047379103999997 23.971219272
283 2 1.3630006728 25.072288487999998 7.8562879200000015
284 2 12.996520055999998 16.979630615999998 11.882231712
285 2 1.41332022 7.9728714 16.023836088
286 2 18.328171679999997 23.46028776 13.854867623999999
287 2 7.140093479999999 7.489572479999998 15.388775063999997
288 2 20.900662848 2.9206943999999977 12.360943296
289 3 13.286825136 14.310099648 12.826354319999997
290 3 17.256689424 17.694060695999998 17.640098423999998
291 3 20.168643455999998 12.090209040000001 10.12688352
292 3 0.7898903999999973 15.75261324 13.846588704
293 3 19.491292079999997 9.797083919999999 1.7391160800000018
294 3 25.1784296712 23.898663359999997 5.609307599999999
295 3 18.953026559999998 21.88023552 7.762098239999999
296 3 27.096117984 25.362756432 18.670403231999998
297 3 26.237536977599998 13.845448656 22.714126344
298 3 13.421893679999998 14.373996623999998 25.051957631999997
299 3 23.408632728 10.929205871999999 18.83875032
300 3 20.280395304 25.477358399999996 12.478612535999998
301 3 11.462341175999999 22.895936856 9.830552471999999
302 3 17.647590168 13.863988008 23.331326616
303 3 26.565298063199997 22.307563511999998 21.135159864
304 3 14.041564055999999 1.2358228895999999 22.163266007999997
305 3 11.612556071999999 1.8891219672 1.3756579200000014
306 3 10.598971967999999 7.622605223999999 5.334067439999998
307 3 9.311423472 8.9045892 21.601168056
308 3 7.847981856 23.325816384 7.124919984
309 3 26.126154288 16.1520372 16.82534412
310 3 11.899386719999999 10.598320511999999 20.147633999999996
311 3 13.469857128 20.873030256 12.512759688
312 3 16.288354368 0.0865391436 16.025546159999998
313 3 19.270014192 7.335394559999999 22.984209144
314 3 19.306821455999998 26.159785703999997 7.912394568
315 3 13.38850656 17.69069484 23.372639783999997
316 3 26.5202661672 10.7361306 7.8761030399999985
317 3 9.761090975999998 2.80424664 22.494667103999998
318 3 23.712726959999998 7.430045688 6.694524719999997
319 3 4.389401951999999 19.22921676 10.211355648
320 3 24.265948824 3.3546183839999997 23.798067696
321 3 16.933811544 1.8370869192 24.273983448
322 3 17.32845816 12.998175840000002 26.852419151999996
323 3 19.675029816 10.930427351999999 16.502194799999998
324 3 14.694322968 17.082072072 7.122395591999999
325 3 17.475795792 1.6441120800000002 6.959721599999998
326 3 12.602524895999998 1.6411533839999994 16.861554216
327 3 10.002808296 11.675828736 13.33639008
328 3 25.928111664 8.350064424 17.800329455999996
329 3 15.666376751999998 1.8934948656 11.034090287999998
330 3 13.469667119999999 11.52317088 14.371146504
331 3 20.19812184 16.56747612 23.813648351999998
332 3 9.088598375999998 1.5467818392 11.150700912
333 3 25.936917177599998 4.609349783999999 4.982715504
334 3 16.4709792 11.338564536 11.79026784
335 3 9.495785520000002 14.374159488 24.4920529152
336 3 11.459111040000002 25.593453288 19.402856928
337 1 26.748321911999998 1.8233194823999999 4.252080456
338 1 6.992077247999999 13.392713879999999 13.440080159999999
339 1 15.895472111999998 9.939427056 14.420141423999999
340 1 21.487108967999998 26.743020688799998 6.302348208
341 1 22.189894272 8.401556591999999 19.254406391999996
342 1 11.676534479999997 23.737020839999996 17.464096728
343 1 11.159495567999999 12.798341712 26.200718855999998
344 1 0.43457544000000214 7.917877655999999 0.6089403528
345 1 5.748610608 15.240785975999998 8.174469887999999
346 1 1.5059491199999993 20.30208336 26.653165905599998
347 1 13.603731336 7.80634296 8.258643432
348 1 11.776370112 12.660748775999998 7.748960544
349 2 16.037489519999998 3.2165640000000013 16.862721408
350 2 12.269902319999998 16.001197992 17.000260056000002
351 2 5.28547968 7.293131352 11.751207624
352 2 24.19806168 11.528762544 22.015304064
353 2 7.330508640000001 24.327375695999997 17.3239794
354 2 17.160816816 7.934001192 10.725164423999999
355 2 25.661313288 16.902623088 7.486315200000001
356 2 17.693382096 6.55296876 20.38283676
357 2 0.5296961591999999 3.5314344000000024 26.215960212
358 2 11.297088504 17.35845228 6.760023191999999
359 2 17.165078424 12.569762088 20.717359415999997
360 2 1.730701440000001 1.0957951368 0.4994495999999992
361 2 23.186431944 1.9060516799999985 26.213205096
362 2 21.666557951999998 18.964128456 6.509294064
363 2 19.128349655999997 3.3907199039999996 16.308549504
364 2 2.2250045376 14.039446824 6.527263391999999
365 2 0.14874911999999807 1.8116937072000001 23.839326575999998
366 2 18.092453184 6.392846304 6.976930895999999
367 2 6.211280088 4.66822512 24.314943744
368 2 12.323104559999996 10.333992240000002 16.574506416
369 2 12.938160455999999 3.965738399999997 22.056101496
370 2 3.3058677599999995 16.613865216 27.09095329512
371 2 22.312069415999996 4.941483767999999 5.8318883999999995
372 2 25.17904584 16.721328311999997 4.571701055999999
373 3 7.946541719999999 19.446803064 21.500490959999997
374 3 18.546979464 25.2099438552 16.436696328
375 3 26.1949996152 13.954106088 7.4488836240000005
376 3 16.089171695999998 20.540299104 5.097887495999999
377 3 3.424758479999997 6.031749671999999 21.178753127999997
378 3 8.11727748 16.670134728 3.7068389279999994
379 3 15.018422327999998 7.651296432 12.866961744
380 3 16.468427663999996 4.137967079999999 5.61487212
381 3 18.152577144 19.356332112 1.4989758264
382 3 18.400076136 8.384238719999999 14.740929216
383 3 0.680445792 15.199228512 26.532337103999996
384 3 8.388038880000002 7.363488599999999 12.469492151999999
385 3 4.682285712 15.309406008 2.3749479935999998
386 3 25.706722485599997 7.382896559999998 10.305762479999999
387 3 14.641256447999998 23.48811036 7.983946151999999
388 3 19.148409072 4.152109103999999 19.693162007999998
389 3 19.984905719999997 15.132128543999999 16.039932479999997
390 3 16.117862904 4.5178473599999975 22.193395847999998
391 3 14.125737599999999 24.868817063999998 16.456538592
392 3 20.919310776 24.983799047999998 4.111067376
393 3 1.4063306399999975 11.320405199999998 17.378837423999997
394 3 3.207335040000001 8.660618928 13.571565695999999
395 3 2.4093014399999984 7.9592994 25.757796636
396 3 24.826228127999997 18.258384456 1.1160364176
397 3 20.721539592 6.945498143999999 13.500882719999998
398 3 9.984431807999998 21.976379568 3.477607848
399 3 19.889765999999998 6.751744271999999 4.719825864
400 3 18.219677112 14.363111879999998 18.803435976
401 3 5.886122112 4.017149136 21.340721375999998
402 3 22.395482927999996 16.704933335999996 3.8775204
403 3 0.10369007999999821 6.112828800000002 24.435495676799995
404 3 21.502906775999996 0.43421442479999994 1.5662332295999999
405 3 3.708657576 21.030329736 21.009103128
406 3 22.609784807999997 18.891192527999998 12.571010712
407 3 8.645363999999999 9.971836991999998 15.856873344
408 3 4.4109000000000025 25.963751736 13.89650652
409 3 12.653311319999998 8.079683039999999 3.04338528
410 3 22.626776951999997 11.922730560000002 14.648612472
411 3 22.829759784 26.372187504 18.957966768
412 3 14.683628232 1.5362499672 4.106887199999999
413 3 21.989462976 18.209199528 16.239929472
414 3 14.593700159999996 12.779178047999999 6.375854160000001
415 3 26.060927256 13.004337527999999 16.811392104
416 3 24.612409411199998 25.035584371199995 12.499540559999998
417 3 26.3156166936 0.10715555448 10.843267968
418 3 17.13790728 17.457419304 21.606786864
419 3 19.338417072 2.6275690583999998 0.5611506263999999
420 3 17.312524632 14.407438031999998 12.620765663999999
421 1 25.493864666399997 13.173797519999999 19.570715424
422 1 22.312313711999998 15.766483823999998 1.2583659816
423 1 11.272007448 19.849104288 18.539922024
424 1 7.666388496 1.0569873599999993 13.634431199999998
425 1 26.472365150399998 15.912192816 1.8694072799999994
426 1 21.916228464 22.35701988 4.5379339199999995
427 1 24.277946472 1.8799934400000027 10.76300316
428 1 25.11783612 1.8904438799999999 14.292048887999998
429 1 0.34228584000000023 4.109818752 11.212589232
430 1 6.505168176 5.7914438399999995 9.607510223999999
431 1 20.211829559999998 20.064627648000002 12.169089504
432 1 24.233783183999996 13.585219128 13.068505944
433 2 20.227627368 24.333727392 20.480310864
434 2 10.646962559999999 22.806985968 20.846076264
435 2 18.510552216 17.974783944 13.487609303999998
436 2 13.767843959999999 10.910503656 22.562337095999997
437 2 9.768012696 21.914518391999998 14.691472847999998
438 2 1.3215735 20.110175279999996 22.314213792
439 2 5.168516184 0.9600832799999973 11.840647103999999
440 2 24.7200245136 10.323487512 16.152797231999998
441 2 10.573728048 18.869504472 24.311985047999997
442 2 9.805905719999998 4.920637176 19.994080392
443 2 2.536335359999999 14.444299584000001 17.655353352
444 2 6.551122968 18.195410375999998 19.381087439999998
445 2 2.6512413408 24.152215464 26.61699924
446 2 19.69147908 10.664361863999998 25.959872858399997
447 2 11.025458495999999 25.731141228 8.219366064
448 2 8.544931199999999 12.391616015999999 21.372642719999998
449 2 10.829180231999999 14.415852672 14.877843552
450 2 5.306109120000002 2.71820016 6.806086559999999
451 2 22.520833919999998 4.890860208 22.053902832
452 2 7.32833712 1.4147452799999984 21.334342536
453 2 20.20436496 23.269736879999996 1.1944120032
454 2 14.264552016 15.928126343999999 4.363397999999998
455 2 9.485687952 1.1924006327999999 7.657078103999999
456 2 5.579042039999999 25.254750455999996 7.389763992
457 3 20.719612367999996 1.54747944 17.666862408
458 3 3.354998399999998 2.3297043744 14.485341312
459 3 0.9713317536 20.450533896 9.760385231999999
460 3 26.442409032 26.7462942552 21.683930112
461 3 14.684469695999999 8.558476056 16.88451804
462 3 3.923719488 24.304303295999997 4.971423599999998
463 3 11.311909128 14.073295392 19.054273679999998
464 3 23.828224679999998 15.906981168 14.595790247999998
465 3 21.749347152 9.514514879999998 21.868509312
466 3 17.616537431999998 24.712331904 1.4268325032
467 3 2.128632479999998 6.832171944 4.093315200000001
468 3 11.558675231999999 20.103199271999998 27.112879403999997
469 3 5.985251999999997 19.834636535999998 2.4148768175999997
470 3 26.6618899872 9.641793095999999 13.90695696
471 3 16.098644952 20.991513815999998 23.995486007999997
472 3 3.9079216799999994 3.250195416 18.460037231999998
473 3 12.067679519999999 15.197029848 9.235800288
474 3 22.2092208 8.44666992 16.143894
475 3 4.6115755919999994 1.6127336159999999 26.56223622
476 3 22.350993912 18.362047392 22.160144448
477 3 14.387731487999998 24.003466344 3.609364824
478 3 15.869522448 17.251206336 10.864928879999997
479 3 8.46390636 11.314976399999997 6.39811224
480 3 26.089401312 9.446492015999999 22.615322184
481 3 24.78952944 19.384697592 18.979519103999998
482 3 10.259481959999999 17.415807551999997 12.747039552
483 3 15.712765848 10.225117656 2.3851432799999968
484 3 4.77951552 6.474984048 7.51495212
485 3 4.695694848 14.738703407999997 12.380459831999998
486 3 0.25365959423999995 20.575097711999998 6.8467211279999995
487 3 16.694862912 25.306079759999996 9.462696983999999
488 3 5.810797512 1.080874079999999 3.7565124479999987
489 3 0.34852895999999894 13.190626799999999 11.178414936
490 3 16.660471464 6.192903600000002 17.415020375999998
491 3 13.843385711999998 4.78765872 11.052385344
492 3 21.747827087999998 4.583997288 15.026619815999998
493 3 13.550094792 19.546774415999998 9.692389511999998
494 3 27.124393427351997 19.774539719999996 3.91307904
495 3 4.195485216 10.50052068 25.779281112
496 3 1.6849475136 22.108055112 24.515456472
497 3 0.9689322239999999 5.145742368 1.7155415159999998
498 3 20.131293311999997 19.237169952 9.291364056
499 3 14.277146831999998 13.799222424 20.955222287999998
500 3 18.613753704 5.147425296 11.903214024
501 3 20.312398079999998 1.9933929287999996 5.053615632
502 3 21.87779256 4.494557808 26.644363106399997
503 3 7.394487048 1.48606614 24.3698832
504 3 23.163522408 7.355589696 23.881671215999997
505 1 12.694380191999999 19.683444456 6.771423671999999
506 1 0.8718707088 23.112003096 9.589160879999998
507 1 17.492082191999998 27.13680684 11.652783479999998
508 1 22.609974816 2.1620196 3.304239119999997
509 1 19.408747176 15.692027832 21.18412764
510 1 8.308805544 13.994713511999997 5.307276312
511 1 9.91326024 25.707430944 11.80234692
512 1 26.201017439999998 16.95061368 19.658064816
513 1 10.394631936 9.492093936 1.2984549551999998
514 1 3.3054605999999995 14.313628367999998 14.837480423999999
515 1 24.265894535999998 22.647107807999998 3.227991624
516 1 25.21331514 0.4286390472 17.769765312
517 2 18.688453992 27.001005407999997 3.1747622399999984
518 2 5.552468063999999 11.635139879999999 7.591905359999999
519 2 25.226542411199997 18.6533568 15.708477096
520 2 19.113311879999998 11.145706416 4.7193644159999995
521 2 25.2006361776 20.8438776 10.930128768
522 2 7.206976296 21.488981904 4.805383752
523 2 7.61877792 6.5043809999999995 21.219251976
524 2 5.00209632 14.201415072 22.204389168
525 2 17.562222287999997 13.232428559999999 9.564324119999998
526 2 27.141638472 24.468931656 23.605318152
527 2 14.709469319999998 26.922015282239997 18.582049511999998
528 2 1.2991118400000004 12.343679711999998 0.6984259776
529 2 9.207950544000001 19.049197752 1.8411775200000013
530 2 12.877493615999999 7.955824967999999 19.394659439999998
531 2 2.806689599999998 17.455872096 12.123786168
532 2 14.617559735999999 19.715175792 21.483091656
533 2 23.649427151999998 15.600281112 19.403128367999997
534 2 24.678958356 22.724223911999996 17.554513392
535 2 2.0493719999999973 27.1062033372 17.309321639999997
536 2 24.381446544 6.530086368 15.930216432
537 2 4.85687592 11.5714872 2.7695023200000017
538 2 1.004056560000002 23.354751888 5.44970088
539 2 25.997763168 17.822804687999998 12.994945704
540 2 20.288701367999998 12.411594000000001 23.360614992
541 3 6.703672247999999 7.357109759999998 18.545785128
542 3 14.77827936 24.713390519999997 25.690908391199997
543 3 7.187351184 11.428709760000002 19.120749336
544 3 18.233873424 23.753415816 5.584850855999999
545 3 16.861309919999997 11.071766160000001 7.463215655999999
546 3 7.833568391999999 25.387758770399998 13.418609255999998
547 3 3.385942560000002 4.191033600000003 24.8445584712
548 3 13.118179463999999 22.233026088 15.031451447999999
549 3 1.5471889992 16.89632568 5.449130856
550 3 13.858152048000001 13.474770192 2.2817246400000006
551 3 10.50106356 7.079155199999997 17.873971128
552 3 6.665914943999999 24.0991218 3.2494625279999996
553 3 10.760343048 14.344545383999998 1.3240843200000012
554 3 11.255585327999999 5.765548464 0.68518242
555 3 3.064720464 25.735932144 1.9638683999999975
556 3 12.678663815999998 21.964463352 24.8654729232
557 3 14.576870880000001 19.272945744 17.211766104
558 3 22.809320352 10.675680911999999 3.701084399999999
559 3 26.447674967999998 17.645201496000002 22.398115895999997
560 3 7.216232399999999 18.8467578 12.903008975999999
561 3 19.5172146 0.21173025743999999 21.835800792
562 3 1.4011732799999999 6.418931688 12.399080615999999
563 3 2.7698009040000002 2.295948096 22.459542768
564 3 8.353185984 25.756018704 21.818672927999998
565 3 11.945477232 2.9920559759999996 9.541197431999999
566 3 0.17916777216 10.784664072 19.923125976
567 3 1.0650952728 19.842236855999996 12.813325200000001